file 5088387 1732279802                                         
version 3
run General-0-20241122-16:48:08-24404
attr configname General
attr datetime 20241122-16:48:08
attr datetimef 20241122-164808
attr experiment General
attr inifile omnetpp.ini
attr iterationvars ""
attr iterationvarsd ""
attr iterationvarsf ""
attr measurement ""
attr network EthNet
attr processid 24404
attr repetition 0
attr replication #0
attr resultdir results
attr runnumber 0
attr seedset 0
config image-path ../../inet4.5/images
config network EthNet
config sim-time-limit 10s
config **.client.numApps 1
config **.client.app[0].typename TcpSessionApp
config **.client.app[0].connectAddress "\"server\""
config **.client.app[0].connectPort 1000
config **.client.app[0].sendBytes 1MB
config **.server.numApps 1
config **.server.app[0].typename TcpEchoApp
config **.server.app[0].localPort 1000

vector 0 EthNet.client.ethernet encapPk:vector(packetBytes) ETV
attr interpolationmode none
attr recordingmode vector(packetBytes)
attr source encapPk
attr title "packets encapsulated, packetBytes"
vector 1 EthNet.client.ethernet decapPk:vector(packetBytes) ETV
attr interpolationmode none
attr recordingmode vector(packetBytes)
attr source decapPk
attr title "packets decapsulated, packetBytes"
vector 2 EthNet.client.ethernet pauseSent:vector ETV
attr recordingmode vector
attr title "pause sent"
vector 3 EthNet.client.lo[0].lo rcvdPkFromHl:vector(packetBytes) ETV
attr interpolationmode none
attr recordingmode vector(packetBytes)
attr source packetReceivedFromUpper
attr title "packets received from higher layer, packetBytes"
vector 4 EthNet.client.lo[0].lo passedUpPk:vector(packetBytes) ETV
attr interpolationmode none
attr recordingmode vector(packetBytes)
attr source packetSentToUpper
attr title "packets passed to higher layer, packetBytes"
vector 5 EthNet.client.lo[0] packetDropInterfaceDown:vector(packetBytes) ETV
attr interpolationmode none
attr recordingmode vector(packetBytes)
attr source packetDropReasonIsInterfaceDown(packetDropped)
attr title "packet drops: interface down, packetBytes"
vector 6 EthNet.client.lo[0] packetDropNoCarrier:vector(packetBytes) ETV
attr interpolationmode none
attr recordingmode vector(packetBytes)
attr source packetDropReasonIsNoCarrier(packetDropped)
attr title "packet drops: no carrier, packetBytes"
vector 7 EthNet.client.eth[0].queue queueLength:vector ETV
attr autoWarmupFilter false
attr interpolationmode sample-hold
attr recordingmode vector
attr source "warmup(atomic(constant0(packetPushEnded) + count(packetPushStarted) - count(packetPulled) - count(packetRemoved) - count(packetDropped)))"
attr title "queue length"
attr unit pk
vector 8 EthNet.client.eth[0].queue queueBitLength:vector ETV
attr autoWarmupFilter false
attr interpolationmode sample-hold
attr recordingmode vector
attr source "warmup(atomic(constant0(packetPushEnded) + sum(packetLength(packetPushStarted)) - sum(packetLength(packetPulled)) - sum(packetLength(packetRemoved)) - sum(packetLength(packetDropped))))"
attr title "queue bit length"
attr unit b
vector 9 EthNet.client.eth[0].queue queueingTime:vector ETV
attr interpolationmode none
attr recordingmode vector
attr source queueingTime(packetPulled)
attr title "queueing times"
attr unit s
vector 10 EthNet.client.eth[0].queue incomingPacketLengths:vector ETV
attr interpolationmode none
attr recordingmode vector
attr source packetLength(packetPushStarted)
attr title "incoming packet lengths"
attr unit b
vector 11 EthNet.client.eth[0].queue incomingDataRate:vector ETV
attr interpolationmode linear
attr recordingmode vector
attr source throughput(packetPushStarted)
attr title "incoming datarate"
attr unit bps
vector 12 EthNet.client.eth[0].queue outgoingPacketLengths:vector ETV
attr interpolationmode none
attr recordingmode vector
attr source packetLength(packetPulled)
attr title "outgoing packet lengths"
attr unit b
vector 13 EthNet.client.eth[0].queue outgoingDataRate:vector ETV
attr interpolationmode linear
attr recordingmode vector
attr source throughput(packetPulled)
attr title "outgoing datarate"
attr unit bps
vector 14 EthNet.client.eth[0].queue droppedPacketLengthsQueueOverflow:vector ETV
attr interpolationmode none
attr recordingmode vector
attr source packetLength(packetDropReasonIsQueueOverflow(packetDropped))
attr title "dropped packet lengths: queue overflow"
attr unit b
vector 15 EthNet.client.eth[0].queue flowQueueingTime:vector ETV
attr interpolationmode none
attr recordingmode vector
attr source queueingTime(demuxFlow(packetPulled))
attr title "flow queueing times"
attr unit s
vector 16 EthNet.client.eth[0].queue flowIncomingDataRate:vector ETV
attr interpolationmode linear
attr recordingmode vector
attr source throughput(flowPacketLength(demuxFlow(packetPushStarted)))
attr title "flow specific incoming data rate"
attr unit bps
vector 17 EthNet.client.eth[0].queue flowOutgoingDataRate:vector ETV
attr interpolationmode linear
attr recordingmode vector
attr source throughput(flowPacketLength(demuxFlow(packetPulled)))
attr title "flow specific outgoing data rate"
attr unit bps
vector 18 EthNet.client.eth[0].mac txPk:vector(packetBytes) ETV
attr interpolationmode none
attr recordingmode vector(packetBytes)
attr source packetSentToLower
attr title "packets transmitted, packetBytes"
vector 19 EthNet.client.eth[0].mac rxPkOk:vector(packetBytes) ETV
attr interpolationmode none
attr recordingmode vector(packetBytes)
attr source rxPkOk
attr title "packets received OK, packetBytes"
vector 20 EthNet.client.eth[0].mac passedUpPk:vector(packetBytes) ETV
attr interpolationmode none
attr recordingmode vector(packetBytes)
attr source packetSentToUpper
attr title "packets passed to higher layer, packetBytes"
vector 21 EthNet.client.eth[0].mac txPausePkUnits:vector ETV
attr interpolationmode none
attr recordingmode vector
attr title "pause units sent"
vector 22 EthNet.client.eth[0].mac rxPausePkUnits:vector ETV
attr interpolationmode none
attr recordingmode vector
attr title "pause units received"
vector 23 EthNet.client.eth[0].mac packetReceivedFromUpper:vector(packetBytes) ETV
attr interpolationmode none
attr recordingmode vector(packetBytes)
attr source packetReceivedFromUpper
attr title "packet bytes from higher layer, packetBytes"
vector 24 EthNet.client.eth[0].mac packetDropIncorrectlyReceived:vector(packetBytes) ETV
attr interpolationmode none
attr recordingmode vector(packetBytes)
attr source packetDropReasonIsIncorrectlyReceived(packetDropped)
attr title "packet drop: incorrectly received, packetBytes"
vector 25 EthNet.client.eth[0].mac packetDropInterfaceDown:vector(packetBytes) ETV
attr interpolationmode none
attr recordingmode vector(packetBytes)
attr source packetDropReasonIsInterfaceDown(packetDropped)
attr title "packet drop: interface down, packetBytes"
vector 26 EthNet.client.eth[0].mac packetDropNotAddressedToUs:vector(packetBytes) ETV
attr interpolationmode none
attr recordingmode vector(packetBytes)
attr source packetDropReasonIsNotAddressedToUs(packetDropped)
attr title "packet drop: not addressed to us, packetBytes"
vector 27 EthNet.client.eth[0] packetDropInterfaceDown:vector(packetBytes) ETV
attr interpolationmode none
attr recordingmode vector(packetBytes)
attr source packetDropReasonIsInterfaceDown(packetDropped)
attr title "packet drops: interface down, packetBytes"
vector 28 EthNet.client.eth[0] packetDropNoCarrier:vector(packetBytes) ETV
attr interpolationmode none
attr recordingmode vector(packetBytes)
attr source packetDropReasonIsNoCarrier(packetDropped)
attr title "packet drops: no carrier, packetBytes"
vector 29 EthNet.client.ipv4.ip packetDropAddressResolutionFailed:vector(packetBytes) ETV
attr interpolationmode none
attr recordingmode vector(packetBytes)
attr source packetDropReasonIsAddressResolutionFailed(packetDropped)
attr title "packet drop: address resolution failed, packetBytes"
vector 30 EthNet.client.ipv4.ip packetDropHopLimitReached:vector(packetBytes) ETV
attr interpolationmode none
attr recordingmode vector(packetBytes)
attr source packetDropReasonIsHopLimitReached(packetDropped)
attr title "packet drop: hop limit reached, packetBytes"
vector 31 EthNet.client.ipv4.ip packetDropForwardingDisabled:vector(packetBytes) ETV
attr interpolationmode none
attr recordingmode vector(packetBytes)
attr source packetDropReasonIsForwardingDisabled(packetDropped)
attr title "packet drop: forwarding disabled, packetBytes"
vector 32 EthNet.client.ipv4.ip packetDropNoInterfaceFound:vector(packetBytes) ETV
attr interpolationmode none
attr recordingmode vector(packetBytes)
attr source packetDropReasonIsNoInterfaceFound(packetDropped)
attr title "packet drop: no interface found, packetBytes"
vector 33 EthNet.client.ipv4.ip packetDropNoRouteFound:vector(packetBytes) ETV
attr interpolationmode none
attr recordingmode vector(packetBytes)
attr source packetDropReasonIsNoRouteFound(packetDropped)
attr title "packet drop: no route found, packetBytes"
vector 34 EthNet.client.ipv4.ip packetDropUndefined:vector(packetBytes) ETV
attr interpolationmode none
attr recordingmode vector(packetBytes)
attr source packetDropReasonIsUndefined(packetDropped)
attr title "packet drop: undefined, packetBytes"
vector 35 EthNet.client.ipv4.arp arpRequestSent:vector(packetBytes) ETV
attr recordingmode vector(packetBytes)
attr source arpRequestSent
attr title "ARP request sent, packetBytes"
vector 36 EthNet.client.ipv4.arp arpReplySent:vector(packetBytes) ETV
attr recordingmode vector(packetBytes)
attr source arpReplySent
attr title "ARP replies sent, packetBytes"
vector 37 EthNet.client.udp packetSent:vector(packetBytes) ETV
attr interpolationmode none
attr recordingmode vector(packetBytes)
attr source packetSent
attr title "packets sent, packetBytes"
vector 38 EthNet.client.udp packetReceived:vector(packetBytes) ETV
attr interpolationmode none
attr recordingmode vector(packetBytes)
attr source packetReceived
attr title "packets received, packetBytes"
vector 39 EthNet.client.udp passedUpPk:vector(count) ETV
attr interpolationmode none
attr recordingmode vector(count)
attr source packetSentToUpper
attr title "packets passed up, count"
vector 40 EthNet.client.udp droppedPkWrongPort:vector(count) ETV
attr interpolationmode none
attr recordingmode vector(count)
attr source packetDropReasonIsNoPortFound(packetDropped)
attr title "packets dropped (wrong port), count"
vector 41 EthNet.client.udp droppedPkBadChecksum:vector(count) ETV
attr interpolationmode none
attr recordingmode vector(count)
attr source packetDropReasonIsIncorrectlyReceived(packetDropped)
attr title "packets dropped (checksum error), count"
vector 42 EthNet.client.app[0] packetReceived:vector(packetBytes) ETV
attr interpolationmode none
attr recordingmode vector(packetBytes)
attr source packetReceived
attr title "packets received, packetBytes"
vector 43 EthNet.client.app[0] packetSent:vector(packetBytes) ETV
attr interpolationmode none
attr recordingmode vector(packetBytes)
attr source packetSent
attr title "packets sent, packetBytes"
vector 44 EthNet.client.app[0] endToEndDelay:vector ETV
attr interpolationmode none
attr recordingmode vector
attr source dataAge(packetReceived)
attr title "end-to-end delay"
attr unit s
vector 45 EthNet.server.ethernet encapPk:vector(packetBytes) ETV
attr interpolationmode none
attr recordingmode vector(packetBytes)
attr source encapPk
attr title "packets encapsulated, packetBytes"
vector 46 EthNet.server.ethernet decapPk:vector(packetBytes) ETV
attr interpolationmode none
attr recordingmode vector(packetBytes)
attr source decapPk
attr title "packets decapsulated, packetBytes"
vector 47 EthNet.server.ethernet pauseSent:vector ETV
attr recordingmode vector
attr title "pause sent"
vector 48 EthNet.server.lo[0].lo rcvdPkFromHl:vector(packetBytes) ETV
attr interpolationmode none
attr recordingmode vector(packetBytes)
attr source packetReceivedFromUpper
attr title "packets received from higher layer, packetBytes"
vector 49 EthNet.server.lo[0].lo passedUpPk:vector(packetBytes) ETV
attr interpolationmode none
attr recordingmode vector(packetBytes)
attr source packetSentToUpper
attr title "packets passed to higher layer, packetBytes"
vector 50 EthNet.server.lo[0] packetDropInterfaceDown:vector(packetBytes) ETV
attr interpolationmode none
attr recordingmode vector(packetBytes)
attr source packetDropReasonIsInterfaceDown(packetDropped)
attr title "packet drops: interface down, packetBytes"
vector 51 EthNet.server.lo[0] packetDropNoCarrier:vector(packetBytes) ETV
attr interpolationmode none
attr recordingmode vector(packetBytes)
attr source packetDropReasonIsNoCarrier(packetDropped)
attr title "packet drops: no carrier, packetBytes"
vector 52 EthNet.server.eth[0].queue queueLength:vector ETV
attr autoWarmupFilter false
attr interpolationmode sample-hold
attr recordingmode vector
attr source "warmup(atomic(constant0(packetPushEnded) + count(packetPushStarted) - count(packetPulled) - count(packetRemoved) - count(packetDropped)))"
attr title "queue length"
attr unit pk
vector 53 EthNet.server.eth[0].queue queueBitLength:vector ETV
attr autoWarmupFilter false
attr interpolationmode sample-hold
attr recordingmode vector
attr source "warmup(atomic(constant0(packetPushEnded) + sum(packetLength(packetPushStarted)) - sum(packetLength(packetPulled)) - sum(packetLength(packetRemoved)) - sum(packetLength(packetDropped))))"
attr title "queue bit length"
attr unit b
vector 54 EthNet.server.eth[0].queue queueingTime:vector ETV
attr interpolationmode none
attr recordingmode vector
attr source queueingTime(packetPulled)
attr title "queueing times"
attr unit s
vector 55 EthNet.server.eth[0].queue incomingPacketLengths:vector ETV
attr interpolationmode none
attr recordingmode vector
attr source packetLength(packetPushStarted)
attr title "incoming packet lengths"
attr unit b
vector 56 EthNet.server.eth[0].queue incomingDataRate:vector ETV
attr interpolationmode linear
attr recordingmode vector
attr source throughput(packetPushStarted)
attr title "incoming datarate"
attr unit bps
vector 57 EthNet.server.eth[0].queue outgoingPacketLengths:vector ETV
attr interpolationmode none
attr recordingmode vector
attr source packetLength(packetPulled)
attr title "outgoing packet lengths"
attr unit b
vector 58 EthNet.server.eth[0].queue outgoingDataRate:vector ETV
attr interpolationmode linear
attr recordingmode vector
attr source throughput(packetPulled)
attr title "outgoing datarate"
attr unit bps
vector 59 EthNet.server.eth[0].queue droppedPacketLengthsQueueOverflow:vector ETV
attr interpolationmode none
attr recordingmode vector
attr source packetLength(packetDropReasonIsQueueOverflow(packetDropped))
attr title "dropped packet lengths: queue overflow"
attr unit b
vector 60 EthNet.server.eth[0].queue flowQueueingTime:vector ETV
attr interpolationmode none
attr recordingmode vector
attr source queueingTime(demuxFlow(packetPulled))
attr title "flow queueing times"
attr unit s
vector 61 EthNet.server.eth[0].queue flowIncomingDataRate:vector ETV
attr interpolationmode linear
attr recordingmode vector
attr source throughput(flowPacketLength(demuxFlow(packetPushStarted)))
attr title "flow specific incoming data rate"
attr unit bps
vector 62 EthNet.server.eth[0].queue flowOutgoingDataRate:vector ETV
attr interpolationmode linear
attr recordingmode vector
attr source throughput(flowPacketLength(demuxFlow(packetPulled)))
attr title "flow specific outgoing data rate"
attr unit bps
vector 63 EthNet.server.eth[0].mac txPk:vector(packetBytes) ETV
attr interpolationmode none
attr recordingmode vector(packetBytes)
attr source packetSentToLower
attr title "packets transmitted, packetBytes"
vector 64 EthNet.server.eth[0].mac rxPkOk:vector(packetBytes) ETV
attr interpolationmode none
attr recordingmode vector(packetBytes)
attr source rxPkOk
attr title "packets received OK, packetBytes"
vector 65 EthNet.server.eth[0].mac passedUpPk:vector(packetBytes) ETV
attr interpolationmode none
attr recordingmode vector(packetBytes)
attr source packetSentToUpper
attr title "packets passed to higher layer, packetBytes"
vector 66 EthNet.server.eth[0].mac txPausePkUnits:vector ETV
attr interpolationmode none
attr recordingmode vector
attr title "pause units sent"
vector 67 EthNet.server.eth[0].mac rxPausePkUnits:vector ETV
attr interpolationmode none
attr recordingmode vector
attr title "pause units received"
vector 68 EthNet.server.eth[0].mac packetReceivedFromUpper:vector(packetBytes) ETV
attr interpolationmode none
attr recordingmode vector(packetBytes)
attr source packetReceivedFromUpper
attr title "packet bytes from higher layer, packetBytes"
vector 69 EthNet.server.eth[0].mac packetDropIncorrectlyReceived:vector(packetBytes) ETV
attr interpolationmode none
attr recordingmode vector(packetBytes)
attr source packetDropReasonIsIncorrectlyReceived(packetDropped)
attr title "packet drop: incorrectly received, packetBytes"
vector 70 EthNet.server.eth[0].mac packetDropInterfaceDown:vector(packetBytes) ETV
attr interpolationmode none
attr recordingmode vector(packetBytes)
attr source packetDropReasonIsInterfaceDown(packetDropped)
attr title "packet drop: interface down, packetBytes"
vector 71 EthNet.server.eth[0].mac packetDropNotAddressedToUs:vector(packetBytes) ETV
attr interpolationmode none
attr recordingmode vector(packetBytes)
attr source packetDropReasonIsNotAddressedToUs(packetDropped)
attr title "packet drop: not addressed to us, packetBytes"
vector 72 EthNet.server.eth[0] packetDropInterfaceDown:vector(packetBytes) ETV
attr interpolationmode none
attr recordingmode vector(packetBytes)
attr source packetDropReasonIsInterfaceDown(packetDropped)
attr title "packet drops: interface down, packetBytes"
vector 73 EthNet.server.eth[0] packetDropNoCarrier:vector(packetBytes) ETV
attr interpolationmode none
attr recordingmode vector(packetBytes)
attr source packetDropReasonIsNoCarrier(packetDropped)
attr title "packet drops: no carrier, packetBytes"
vector 74 EthNet.server.ipv4.ip packetDropAddressResolutionFailed:vector(packetBytes) ETV
attr interpolationmode none
attr recordingmode vector(packetBytes)
attr source packetDropReasonIsAddressResolutionFailed(packetDropped)
attr title "packet drop: address resolution failed, packetBytes"
vector 75 EthNet.server.ipv4.ip packetDropHopLimitReached:vector(packetBytes) ETV
attr interpolationmode none
attr recordingmode vector(packetBytes)
attr source packetDropReasonIsHopLimitReached(packetDropped)
attr title "packet drop: hop limit reached, packetBytes"
vector 76 EthNet.server.ipv4.ip packetDropForwardingDisabled:vector(packetBytes) ETV
attr interpolationmode none
attr recordingmode vector(packetBytes)
attr source packetDropReasonIsForwardingDisabled(packetDropped)
attr title "packet drop: forwarding disabled, packetBytes"
vector 77 EthNet.server.ipv4.ip packetDropNoInterfaceFound:vector(packetBytes) ETV
attr interpolationmode none
attr recordingmode vector(packetBytes)
attr source packetDropReasonIsNoInterfaceFound(packetDropped)
attr title "packet drop: no interface found, packetBytes"
vector 78 EthNet.server.ipv4.ip packetDropNoRouteFound:vector(packetBytes) ETV
attr interpolationmode none
attr recordingmode vector(packetBytes)
attr source packetDropReasonIsNoRouteFound(packetDropped)
attr title "packet drop: no route found, packetBytes"
vector 79 EthNet.server.ipv4.ip packetDropUndefined:vector(packetBytes) ETV
attr interpolationmode none
attr recordingmode vector(packetBytes)
attr source packetDropReasonIsUndefined(packetDropped)
attr title "packet drop: undefined, packetBytes"
vector 80 EthNet.server.ipv4.arp arpRequestSent:vector(packetBytes) ETV
attr recordingmode vector(packetBytes)
attr source arpRequestSent
attr title "ARP request sent, packetBytes"
vector 81 EthNet.server.ipv4.arp arpReplySent:vector(packetBytes) ETV
attr recordingmode vector(packetBytes)
attr source arpReplySent
attr title "ARP replies sent, packetBytes"
vector 82 EthNet.server.udp packetSent:vector(packetBytes) ETV
attr interpolationmode none
attr recordingmode vector(packetBytes)
attr source packetSent
attr title "packets sent, packetBytes"
vector 83 EthNet.server.udp packetReceived:vector(packetBytes) ETV
attr interpolationmode none
attr recordingmode vector(packetBytes)
attr source packetReceived
attr title "packets received, packetBytes"
vector 84 EthNet.server.udp passedUpPk:vector(count) ETV
attr interpolationmode none
attr recordingmode vector(count)
attr source packetSentToUpper
attr title "packets passed up, count"
vector 85 EthNet.server.udp droppedPkWrongPort:vector(count) ETV
attr interpolationmode none
attr recordingmode vector(count)
attr source packetDropReasonIsNoPortFound(packetDropped)
attr title "packets dropped (wrong port), count"
vector 86 EthNet.server.udp droppedPkBadChecksum:vector(count) ETV
attr interpolationmode none
attr recordingmode vector(count)
attr source packetDropReasonIsIncorrectlyReceived(packetDropped)
attr title "packets dropped (checksum error), count"
vector 87 EthNet.server.app[0] packetReceived:vector(packetBytes) ETV
attr interpolationmode none
attr recordingmode vector(packetBytes)
attr source packetReceived
attr title "packets received, packetBytes"
vector 88 EthNet.server.app[0] packetSent:vector(packetBytes) ETV
attr interpolationmode none
attr recordingmode vector(packetBytes)
attr source packetSent
attr title "packets sent, packetBytes"
vector 89 EthNet.server.app[0] endToEndDelay:vector ETV
attr interpolationmode none
attr recordingmode vector
attr source dataAge(packetReceived)
attr title "end-to-end delay"
attr unit s
vector 90 EthNet.server.tcp.conn-1 state:vector ETV
attr interpolationmode sample-hold
attr recordingmode vector
vector 91 EthNet.server.tcp.conn-1 sndWnd:vector ETV
attr interpolationmode sample-hold
attr recordingmode vector
vector 92 EthNet.server.tcp.conn-1 rcvWnd:vector ETV
attr interpolationmode sample-hold
attr recordingmode vector
vector 93 EthNet.server.tcp.conn-1 rcvAdv:vector ETV
attr interpolationmode sample-hold
attr recordingmode vector
vector 94 EthNet.server.tcp.conn-1 sndNxt:vector ETV
attr interpolationmode sample-hold
attr recordingmode vector
vector 95 EthNet.server.tcp.conn-1 sndAck:vector ETV
attr interpolationmode sample-hold
attr recordingmode vector
vector 96 EthNet.server.tcp.conn-1 rcvSeq:vector ETV
attr interpolationmode sample-hold
attr recordingmode vector
vector 97 EthNet.server.tcp.conn-1 rcvAck:vector ETV
attr interpolationmode sample-hold
attr recordingmode vector
vector 98 EthNet.server.tcp.conn-1 unacked:vector ETV
attr interpolationmode sample-hold
attr recordingmode vector
vector 99 EthNet.server.tcp.conn-1 dupAcks:vector ETV
attr interpolationmode sample-hold
attr recordingmode vector
vector 100 EthNet.server.tcp.conn-1 pipe:vector ETV
attr interpolationmode sample-hold
attr recordingmode vector
vector 101 EthNet.server.tcp.conn-1 sndSacks:vector ETV
attr interpolationmode sample-hold
attr recordingmode vector
vector 102 EthNet.server.tcp.conn-1 rcvSacks:vector ETV
attr interpolationmode sample-hold
attr recordingmode vector
vector 103 EthNet.server.tcp.conn-1 rcvOooSeg:vector ETV
attr interpolationmode sample-hold
attr recordingmode vector
vector 104 EthNet.server.tcp.conn-1 rcvNASeg:vector ETV
attr interpolationmode sample-hold
attr recordingmode vector
vector 105 EthNet.server.tcp.conn-1 sackedBytes:vector ETV
attr interpolationmode sample-hold
attr recordingmode vector
vector 106 EthNet.server.tcp.conn-1 tcpRcvQueueBytes:vector ETV
attr interpolationmode sample-hold
attr recordingmode vector
vector 107 EthNet.server.tcp.conn-1 tcpRcvQueueDrops:vector ETV
attr interpolationmode sample-hold
attr recordingmode vector
vector 108 EthNet.server.tcp.conn-1 tcpRcvPayloadBytes:vector ETV
attr interpolationmode sample-hold
attr recordingmode vector
vector 109 EthNet.server.tcp.conn-1 cwnd:vector ETV
attr interpolationmode sample-hold
attr recordingmode vector
vector 110 EthNet.server.tcp.conn-1 ssthresh:vector ETV
attr interpolationmode sample-hold
attr recordingmode vector
vector 111 EthNet.server.tcp.conn-1 rtt:vector ETV
attr interpolationmode sample-hold
attr recordingmode vector
vector 112 EthNet.server.tcp.conn-1 srtt:vector ETV
attr interpolationmode sample-hold
attr recordingmode vector
vector 113 EthNet.server.tcp.conn-1 rttvar:vector ETV
attr interpolationmode sample-hold
attr recordingmode vector
vector 114 EthNet.server.tcp.conn-1 rto:vector ETV
attr interpolationmode sample-hold
attr recordingmode vector
vector 115 EthNet.server.tcp.conn-1 numRtos:vector ETV
attr interpolationmode sample-hold
attr recordingmode vector
vector 116 EthNet.server.tcp.conn-1 load:vector ETV
attr interpolationmode sample-hold
attr recordingmode vector
vector 117 EthNet.server.tcp.conn-1 calcLoad:vector ETV
attr interpolationmode sample-hold
attr recordingmode vector
vector 118 EthNet.server.tcp.conn-1 markingProb:vector ETV
attr interpolationmode sample-hold
attr recordingmode vector
vector 119 EthNet.client.tcp.conn-2 state:vector ETV
attr interpolationmode sample-hold
attr recordingmode vector
vector 120 EthNet.client.tcp.conn-2 sndWnd:vector ETV
attr interpolationmode sample-hold
attr recordingmode vector
vector 121 EthNet.client.tcp.conn-2 rcvWnd:vector ETV
attr interpolationmode sample-hold
attr recordingmode vector
vector 122 EthNet.client.tcp.conn-2 rcvAdv:vector ETV
attr interpolationmode sample-hold
attr recordingmode vector
vector 123 EthNet.client.tcp.conn-2 sndNxt:vector ETV
attr interpolationmode sample-hold
attr recordingmode vector
vector 124 EthNet.client.tcp.conn-2 sndAck:vector ETV
attr interpolationmode sample-hold
attr recordingmode vector
vector 125 EthNet.client.tcp.conn-2 rcvSeq:vector ETV
attr interpolationmode sample-hold
attr recordingmode vector
vector 126 EthNet.client.tcp.conn-2 rcvAck:vector ETV
attr interpolationmode sample-hold
attr recordingmode vector
vector 127 EthNet.client.tcp.conn-2 unacked:vector ETV
attr interpolationmode sample-hold
attr recordingmode vector
vector 128 EthNet.client.tcp.conn-2 dupAcks:vector ETV
attr interpolationmode sample-hold
attr recordingmode vector
vector 129 EthNet.client.tcp.conn-2 pipe:vector ETV
attr interpolationmode sample-hold
attr recordingmode vector
vector 130 EthNet.client.tcp.conn-2 sndSacks:vector ETV
attr interpolationmode sample-hold
attr recordingmode vector
vector 131 EthNet.client.tcp.conn-2 rcvSacks:vector ETV
attr interpolationmode sample-hold
attr recordingmode vector
vector 132 EthNet.client.tcp.conn-2 rcvOooSeg:vector ETV
attr interpolationmode sample-hold
attr recordingmode vector
vector 133 EthNet.client.tcp.conn-2 rcvNASeg:vector ETV
attr interpolationmode sample-hold
attr recordingmode vector
vector 134 EthNet.client.tcp.conn-2 sackedBytes:vector ETV
attr interpolationmode sample-hold
attr recordingmode vector
vector 135 EthNet.client.tcp.conn-2 tcpRcvQueueBytes:vector ETV
attr interpolationmode sample-hold
attr recordingmode vector
vector 136 EthNet.client.tcp.conn-2 tcpRcvQueueDrops:vector ETV
attr interpolationmode sample-hold
attr recordingmode vector
vector 137 EthNet.client.tcp.conn-2 tcpRcvPayloadBytes:vector ETV
attr interpolationmode sample-hold
attr recordingmode vector
vector 138 EthNet.client.tcp.conn-2 cwnd:vector ETV
attr interpolationmode sample-hold
attr recordingmode vector
vector 139 EthNet.client.tcp.conn-2 ssthresh:vector ETV
attr interpolationmode sample-hold
attr recordingmode vector
vector 140 EthNet.client.tcp.conn-2 rtt:vector ETV
attr interpolationmode sample-hold
attr recordingmode vector
vector 141 EthNet.client.tcp.conn-2 srtt:vector ETV
attr interpolationmode sample-hold
attr recordingmode vector
vector 142 EthNet.client.tcp.conn-2 rttvar:vector ETV
attr interpolationmode sample-hold
attr recordingmode vector
vector 143 EthNet.client.tcp.conn-2 rto:vector ETV
attr interpolationmode sample-hold
attr recordingmode vector
vector 144 EthNet.client.tcp.conn-2 numRtos:vector ETV
attr interpolationmode sample-hold
attr recordingmode vector
vector 145 EthNet.client.tcp.conn-2 load:vector ETV
attr interpolationmode sample-hold
attr recordingmode vector
vector 146 EthNet.client.tcp.conn-2 calcLoad:vector ETV
attr interpolationmode sample-hold
attr recordingmode vector
vector 147 EthNet.client.tcp.conn-2 markingProb:vector ETV
attr interpolationmode sample-hold
attr recordingmode vector
vector 148 EthNet.server.tcp.conn-3 state:vector ETV
attr interpolationmode sample-hold
attr recordingmode vector
vector 149 EthNet.server.tcp.conn-3 sndWnd:vector ETV
attr interpolationmode sample-hold
attr recordingmode vector
vector 150 EthNet.server.tcp.conn-3 rcvWnd:vector ETV
attr interpolationmode sample-hold
attr recordingmode vector
vector 151 EthNet.server.tcp.conn-3 rcvAdv:vector ETV
attr interpolationmode sample-hold
attr recordingmode vector
vector 152 EthNet.server.tcp.conn-3 sndNxt:vector ETV
attr interpolationmode sample-hold
attr recordingmode vector
vector 153 EthNet.server.tcp.conn-3 sndAck:vector ETV
attr interpolationmode sample-hold
attr recordingmode vector
vector 154 EthNet.server.tcp.conn-3 rcvSeq:vector ETV
attr interpolationmode sample-hold
attr recordingmode vector
vector 155 EthNet.server.tcp.conn-3 rcvAck:vector ETV
attr interpolationmode sample-hold
attr recordingmode vector
vector 156 EthNet.server.tcp.conn-3 unacked:vector ETV
attr interpolationmode sample-hold